                         Program Version 5.0.4 -  RELEASE  -
|  1> ! UKS B3LYP ZORA-def2-TZVP def2/J RIJCOSX TightSCF ZORA
|  2> %tddft
|  3> doquad true
|  4> nroots 60
|  5> maxdim 10
|  6> end
|  7> * xyz 2 2
|  8>  C                 -0.79747600   -4.20488000   -0.10253400
|  9>  N                  0.39435800   -4.12945700   -0.80812900
| 10>  C                 -1.05943000   -2.90437400    0.27014100
| 11>  C                  0.81746800   -2.84284600   -0.84168700
| 12>  N                 -0.05058400   -2.06830800   -0.19098500
| 13>  C                  4.27583100   -0.04677900   -0.46591500
| 14>  N                  4.14905000   -0.60910000    0.79603900
| 15>  C                  2.98032100    0.21813700   -0.85733000
| 16>  C                  2.83628300   -0.67609100    1.13166600
| 17>  N                  2.09984200   -0.17722700    0.14032300
| 18>  C                 -4.10276600    0.63359500    0.00767100
| 19>  N                 -3.89101000    0.00507800   -1.21084200
| 20>  C                 -2.85447100    0.68759600    0.58958700
| 21>  C                 -2.57670000   -0.30200800   -1.33673100
| 22>  N                 -1.91877400    0.10323600   -0.25078100
| 23>  C                 -0.07647700    4.16460600   -0.33161100
| 24>  N                  0.87970400    4.00015100    0.65971900
| 25>  C                 -0.47920700    2.88340600   -0.63798300
| 26>  C                  1.03741800    2.67984300    0.91784100
| 27>  N                  0.21694600    1.97105000    0.14227600
| 28>  Cu                 0.07513600   -0.05424700    0.07831900
| 29>  C                 -0.48565500    5.49564100   -0.86133400
| 30>  H                 -0.90961800    6.13340200   -0.07058900
| 31>  H                  0.36565600    6.03255300   -1.30708700
| 32>  H                 -1.24845900    5.37185600   -1.63939800
| 33>  C                 -1.53187300   -5.48052200    0.12876100
| 34>  H                 -0.92139300   -6.20237400    0.69266400
| 35>  H                 -2.44506800   -5.29020800    0.70544700
| 36>  H                 -1.82416400   -5.95660500   -0.81974100
| 37>  C                 -5.44146200    1.10042100    0.46601600
| 38>  H                 -5.86895200    1.84344000   -0.22454300
| 39>  H                 -6.15562100    0.26663100    0.54654600
| 40>  H                 -5.35830200    1.56842700    1.45427900
| 41>  C                  5.58776700    0.17393800   -1.13704600
| 42>  H                  6.23402300    0.84525100   -0.55101300
| 43>  H                  6.13212900   -0.77144700   -1.28415800
| 44>  H                  5.43391100    0.63031900   -2.12228800
| 45>  H                 -1.91019600   -2.52388400    0.82462500
| 46>  H                  1.72770800   -2.51556200   -1.33246900
| 47>  H                  2.63823800    0.67477400   -1.78028200
| 48>  H                  2.45570900   -1.06661500    2.06939600
| 49>  H                 -2.57707900    1.10934500    1.54883200
| 50>  H                 -2.15171300   -0.80802100   -2.19715500
| 51>  H                 -1.21867000    2.56992900   -1.36556300
| 52>  H                  1.73985000    2.28281400    1.64206900
| 53>  H                  1.38539100    4.75285400    1.12155500
| 54>  H                  4.92053100   -0.91861400    1.38332500
| 55>  H                  0.87469300   -4.91596800   -1.24007300
| 56>  H                 -4.60877800   -0.19519200   -1.90405800
| 57>  O                 -0.02962900   -0.42913600    2.59512800
| 58>  H                 -0.19709200    0.21367800    3.30753100
| 59>  H                 -0.38880700   -1.27058500    2.92947100
| 60> *
| 61>
| 62>                          ****END OF INPUT****

CARTESIAN COORDINATES (ANGSTROEM)
---------------------------------
  C     -0.797476   -4.204880   -0.102534
  N      0.394358   -4.129457   -0.808129
  C     -1.059430   -2.904374    0.270141
  C      0.817468   -2.842846   -0.841687
  N     -0.050584   -2.068308   -0.190985
  C      4.275831   -0.046779   -0.465915
  N      4.149050   -0.609100    0.796039
  C      2.980321    0.218137   -0.857330
  C      2.836283   -0.676091    1.131666
  N      2.099842   -0.177227    0.140323
  C     -4.102766    0.633595    0.007671
  N     -3.891010    0.005078   -1.210842
  C     -2.854471    0.687596    0.589587
  C     -2.576700   -0.302008   -1.336731
  N     -1.918774    0.103236   -0.250781
  C     -0.076477    4.164606   -0.331611
  N      0.879704    4.000151    0.659719
  C     -0.479207    2.883406   -0.637983
  C      1.037418    2.679843    0.917841
  N      0.216946    1.971050    0.142276
  Cu     0.075136   -0.054247    0.078319
  C     -0.485655    5.495641   -0.861334
  H     -0.909618    6.133402   -0.070589
  H      0.365656    6.032553   -1.307087
  H     -1.248459    5.371856   -1.639398
  C     -1.531873   -5.480522    0.128761
  H     -0.921393   -6.202374    0.692664
  H     -2.445068   -5.290208    0.705447
  H     -1.824164   -5.956605   -0.819741
  C     -5.441462    1.100421    0.466016
  H     -5.868952    1.843440   -0.224543
  H     -6.155621    0.266631    0.546546
  H     -5.358302    1.568427    1.454279
  C      5.587767    0.173938   -1.137046
  H      6.234023    0.845251   -0.551013
  H      6.132129   -0.771447   -1.284158
  H      5.433911    0.630319   -2.122288
  H     -1.910196   -2.523884    0.824625
  H      1.727708   -2.515562   -1.332469
  H      2.638238    0.674774   -1.780282
  H      2.455709   -1.066615    2.069396
  H     -2.577079    1.109345    1.548832
  H     -2.151713   -0.808021   -2.197155
  H     -1.218670    2.569929   -1.365563
  H      1.739850    2.282814    1.642069
  H      1.385391    4.752854    1.121555
  H      4.920531   -0.918614    1.383325
  H      0.874693   -4.915968   -1.240073
  H     -4.608778   -0.195192   -1.904058
  O     -0.029629   -0.429136    2.595128
  H     -0.197092    0.213678    3.307531
  H     -0.388807   -1.270585    2.929471

 Total Charge           Charge          ....    2
 Multiplicity           Mult            ....    2
 Number of Electrons    NEL             ....  213
 Basis Dimension        Dim             .... 1011

ORBITAL ENERGIES
----------------
                 SPIN UP ORBITALS
  NO   OCC          E(Eh)            E(eV)
   0   1.0000    -330.792733     -9001.3279
   1   1.0000     -40.012363     -1088.7918
   2   1.0000     -34.541600      -939.9247
   3   1.0000     -34.541453      -939.9207
   4   1.0000     -34.528861      -939.5781
   5   1.0000     -19.392034      -527.6841
   6   1.0000     -14.609190      -397.5363
   7   1.0000     -14.608686      -397.5226
   8   1.0000     -14.607319      -397.4853
   9   1.0000     -14.604762      -397.4158
  10   1.0000     -14.573470      -396.5643
  11   1.0000     -14.572869      -396.5479
  12   1.0000     -14.571702      -396.5162
  13   1.0000     -14.569862      -396.4661
  14   1.0000     -10.465744      -284.7874
  15   1.0000     -10.464603      -284.7563
  16   1.0000     -10.464335      -284.7490
  17   1.0000     -10.461936      -284.6838
  18   1.0000     -10.435080      -283.9530
  19   1.0000     -10.434426      -283.9352
  20   1.0000     -10.432407      -283.8802
  21   1.0000     -10.428764      -283.7811
  22   1.0000     -10.414544      -283.3942
  23   1.0000     -10.413864      -283.3756
  24   1.0000     -10.412021      -283.3255
  25   1.0000     -10.408707      -283.2353
  26   1.0000     -10.377074      -282.3745
  27   1.0000     -10.377004      -282.3726
  28   1.0000     -10.375079      -282.3202
  29   1.0000     -10.372238      -282.2429
  30   1.0000      -4.760866      -129.5498
  31   1.0000      -3.165017       -86.1245
  32   1.0000      -3.164392       -86.1075
  33   1.0000      -3.116916       -84.8156
  34   1.0000      -1.239422       -33.7264
  35   1.0000      -1.237657       -33.6784
  36   1.0000      -1.237246       -33.6672
  37   1.0000      -1.236573       -33.6488
  38   1.0000      -1.233672       -33.5699
  39   1.0000      -1.103700       -30.0332
  40   1.0000      -1.099241       -29.9119
  41   1.0000      -1.097808       -29.8729
  42   1.0000      -1.094106       -29.7721
  43   1.0000      -0.985392       -26.8139
  44   1.0000      -0.985002       -26.8033
  45   1.0000      -0.983334       -26.7579
  46   1.0000      -0.980458       -26.6796
  47   1.0000      -0.898093       -24.4384
  48   1.0000      -0.896783       -24.4027
  49   1.0000      -0.895594       -24.3703
  50   1.0000      -0.892789       -24.2940
  51   1.0000      -0.841592       -22.9009
  52   1.0000      -0.836849       -22.7718
  53   1.0000      -0.835062       -22.7232
  54   1.0000      -0.830892       -22.6097
  55   1.0000      -0.809092       -22.0165
  56   1.0000      -0.807787       -21.9810
  57   1.0000      -0.806772       -21.9534
  58   1.0000      -0.804157       -21.8822
  59   1.0000      -0.755496       -20.5581
  60   1.0000      -0.754518       -20.5315
  61   1.0000      -0.751858       -20.4591
  62   1.0000      -0.751253       -20.4426
  63   1.0000      -0.748085       -20.3564
  64   1.0000      -0.679864       -18.5000
  65   1.0000      -0.677552       -18.4371
  66   1.0000      -0.674085       -18.3428
  67   1.0000      -0.671134       -18.2625
  68   1.0000      -0.667824       -18.1724
  69   1.0000      -0.661067       -17.9885
  70   1.0000      -0.658264       -17.9123
  71   1.0000      -0.657555       -17.8930
  72   1.0000      -0.655888       -17.8476
  73   1.0000      -0.643535       -17.5115
  74   1.0000      -0.636762       -17.3272
  75   1.0000      -0.635534       -17.2937
  76   1.0000      -0.634820       -17.2743
  77   1.0000      -0.633342       -17.2341
  78   1.0000      -0.629994       -17.1430
  79   1.0000      -0.618974       -16.8431
  80   1.0000      -0.618417       -16.8280
  81   1.0000      -0.611474       -16.6391
  82   1.0000      -0.608107       -16.5474
  83   1.0000      -0.603012       -16.4088
  84   1.0000      -0.598682       -16.2910
  85   1.0000      -0.597195       -16.2505
  86   1.0000      -0.593238       -16.1428
  87   1.0000      -0.589301       -16.0357
  88   1.0000      -0.587803       -15.9949
  89   1.0000      -0.582599       -15.8533
  90   1.0000      -0.579020       -15.7559
  91   1.0000      -0.576623       -15.6907
  92   1.0000      -0.571464       -15.5503
  93   1.0000      -0.571107       -15.5406
  94   1.0000      -0.554480       -15.0882
  95   1.0000      -0.553766       -15.0687
  96   1.0000      -0.549686       -14.9577
  97   1.0000      -0.533762       -14.5244
  98   1.0000      -0.514778       -14.0078
  99   1.0000      -0.511931       -13.9303
 100   1.0000      -0.509287       -13.8584
 101   1.0000      -0.504537       -13.7292
 102   1.0000      -0.462724       -12.5914
 103   1.0000      -0.447720       -12.1831
 104   1.0000      -0.442151       -12.0315
 105   1.0000      -0.439736       -11.9658
 106   1.0000      -0.435936       -11.8624
 107   0.0000      -0.213525        -5.8103
 108   0.0000      -0.209449        -5.6994
 109   0.0000      -0.206685        -5.6242
 110   0.0000      -0.204493        -5.5645
 111   0.0000      -0.197915        -5.3856

                 SPIN DOWN ORBITALS
  NO   OCC          E(Eh)            E(eV)
   0   1.0000    -330.792575     -9001.3236
   1   1.0000     -39.991673     -1088.2288
   2   1.0000     -34.523113      -939.4217
   3   1.0000     -34.518639      -939.2999
   4   1.0000     -34.518624      -939.2995
   5   1.0000     -19.392066      -527.6850
   6   1.0000     -14.609133      -397.5347
   7   1.0000     -14.608635      -397.5212
   8   1.0000     -14.607264      -397.4839
   9   1.0000     -14.604710      -397.4144
  10   1.0000     -14.570830      -396.4924
  11   1.0000     -14.570204      -396.4754
  12   1.0000     -14.569061      -396.4443
  13   1.0000     -14.567146      -396.3922
  14   1.0000     -10.465778      -284.7883
  15   1.0000     -10.464632      -284.7571
  16   1.0000     -10.464379      -284.7502
  17   1.0000     -10.461976      -284.6848
  18   1.0000     -10.434992      -283.9506
  19   1.0000     -10.434347      -283.9330
  20   1.0000     -10.432323      -283.8779
  21   1.0000     -10.428676      -283.7787
  22   1.0000     -10.414521      -283.3935
  23   1.0000     -10.413848      -283.3752
  24   1.0000     -10.412011      -283.3252
  25   1.0000     -10.408686      -283.2347
  26   1.0000     -10.377058      -282.3741
  27   1.0000     -10.376988      -282.3722
  28   1.0000     -10.375063      -282.3198
  29   1.0000     -10.372221      -282.2425
  30   1.0000      -4.717222      -128.3621
  31   1.0000      -3.103561       -84.4522
  32   1.0000      -3.103394       -84.4476
  33   1.0000      -3.102397       -84.4205
  34   1.0000      -1.238559       -33.7029
  35   1.0000      -1.236972       -33.6597
  36   1.0000      -1.236525       -33.6476
  37   1.0000      -1.235437       -33.6180
  38   1.0000      -1.232520       -33.5386
  39   1.0000      -1.101416       -29.9710
  40   1.0000      -1.096933       -29.8491
  41   1.0000      -1.095480       -29.8095
  42   1.0000      -1.091635       -29.7049
  43   1.0000      -0.985127       -26.8067
  44   1.0000      -0.984733       -26.7960
  45   1.0000      -0.983068       -26.7506
  46   1.0000      -0.980183       -26.6721
  47   1.0000      -0.897675       -24.4270
  48   1.0000      -0.896373       -24.3915
  49   1.0000      -0.895198       -24.3596
  50   1.0000      -0.892370       -24.2826
  51   1.0000      -0.839569       -22.8458
  52   1.0000      -0.834653       -22.7121
  53   1.0000      -0.833231       -22.6734
  54   1.0000      -0.828418       -22.5424
  55   1.0000      -0.808683       -22.0054
  56   1.0000      -0.807303       -21.9678
  57   1.0000      -0.806336       -21.9415
  58   1.0000      -0.803705       -21.8699
  59   1.0000      -0.755273       -20.5520
  60   1.0000      -0.753809       -20.5122
  61   1.0000      -0.750992       -20.4355
  62   1.0000      -0.750447       -20.4207
  63   1.0000      -0.747132       -20.3305
  64   1.0000      -0.677272       -18.4295
  65   1.0000      -0.673395       -18.3240
  66   1.0000      -0.670392       -18.2423
  67   1.0000      -0.667338       -18.1592
  68   1.0000      -0.665872       -18.1193
  69   1.0000      -0.660431       -17.9712
  70   1.0000      -0.657518       -17.8920
  71   1.0000      -0.656125       -17.8541
  72   1.0000      -0.640880       -17.4392
  73   1.0000      -0.635892       -17.3035
  74   1.0000      -0.635147       -17.2832
  75   1.0000      -0.633856       -17.2481
  76   1.0000      -0.631797       -17.1921
  77   1.0000      -0.628363       -17.0986
  78   1.0000      -0.619778       -16.8650
  79   1.0000      -0.617479       -16.8024
  80   1.0000      -0.614784       -16.7291
  81   1.0000      -0.606140       -16.4939
  82   1.0000      -0.600983       -16.3536
  83   1.0000      -0.597521       -16.2594
  84   1.0000      -0.596118       -16.2212
  85   1.0000      -0.592766       -16.1300
  86   1.0000      -0.590547       -16.0696
  87   1.0000      -0.586725       -15.9656
  88   1.0000      -0.585102       -15.9214
  89   1.0000      -0.574095       -15.6219
  90   1.0000      -0.573607       -15.6086
  91   1.0000      -0.564867       -15.3708
  92   1.0000      -0.556981       -15.1562
  93   1.0000      -0.555462       -15.1149
  94   1.0000      -0.549188       -14.9442
  95   1.0000      -0.545419       -14.8416
  96   1.0000      -0.539152       -14.6711
  97   1.0000      -0.518089       -14.0979
  98   1.0000      -0.511575       -13.9207
  99   1.0000      -0.508700       -13.8424
 100   1.0000      -0.505594       -13.7579
 101   1.0000      -0.501162       -13.6373
 102   1.0000      -0.447679       -12.1820
 103   1.0000      -0.442083       -12.0297
 104   1.0000      -0.439649       -11.9635
 105   1.0000      -0.436098       -11.8668
 106   0.0000      -0.306436        -8.3386
 107   0.0000      -0.212852        -5.7920
 108   0.0000      -0.208545        -5.6748
 109   0.0000      -0.206360        -5.6153
 110   0.0000      -0.203518        -5.5380

MULLIKEN ATOMIC CHARGES AND SPIN POPULATIONS
--------------------------------------------
   0 C :    0.183266    0.002856
   1 N :   -0.235268    0.001175
   2 C :   -0.193123   -0.000373
   3 C :    0.060901   -0.005303
   4 N :   -0.020789    0.091984
   5 C :    0.214996    0.003381
   6 N :   -0.231969    0.001290
   7 C :   -0.204434   -0.000685
   8 C :    0.067618   -0.004997
   9 N :   -0.073685    0.093452
  10 C :    0.213170    0.003159
  11 N :   -0.229626    0.001278
  12 C :   -0.167969   -0.000628
  13 C :    0.056736   -0.005028
  14 N :   -0.053984    0.094041
  15 C :    0.181077    0.003384
  16 N :   -0.236555    0.001122
  17 C :   -0.148720   -0.000838
  18 C :    0.065576   -0.005264
  19 N :   -0.017762    0.096080
  20 Cu:   -0.166197    0.613260
  21 C :   -0.368152    0.000770
  22 H :    0.159620    0.000108
  23 H :    0.160219    0.000239
  24 H :    0.147666    0.000040
  25 C :   -0.369787    0.000748
  26 H :    0.161536    0.000210
  27 H :    0.148039    0.000036
  28 H :    0.161353    0.000102
  29 C :   -0.368514    0.000713
  30 H :    0.160610    0.000118
  31 H :    0.160273    0.000205
  32 H :    0.149211    0.000044
  33 C :   -0.366655    0.000726
  34 H :    0.160177    0.000109
  35 H :    0.159615    0.000228
  36 H :    0.152568    0.000053
  37 H :    0.180304    0.000822
  38 H :    0.207747    0.000905
  39 H :    0.162695    0.000882
  40 H :    0.184499    0.001074
  41 H :    0.136219    0.001028
  42 H :    0.191489    0.001018
  43 H :    0.170187    0.000915
  44 H :    0.191061    0.000998
  45 H :    0.261909    0.001154
  46 H :    0.264158    0.001124
  47 H :    0.263476    0.001155
  48 H :    0.263879    0.001147
  49 O :   -0.653508    0.000384
  50 H :    0.350428   -0.000226
  51 H :    0.354418   -0.000177
Sum of atomic charges         :    2.0000000

LOEWDIN ATOMIC CHARGES AND SPIN POPULATIONS
-------------------------------------------
   0 C :   -0.219759    0.002398
   1 N :    0.229052    0.000740
   2 C :   -0.197450    0.003283
   3 C :   -0.231205    0.000693
   4 N :    0.152454    0.069231
   5 C :   -0.221680    0.002634
   6 N :    0.227250    0.000795
   7 C :   -0.194823    0.003598
   8 C :   -0.239173    0.000810
   9 N :    0.154661    0.069928
  10 C :   -0.219943    0.002524
  11 N :    0.229216    0.000802
  12 C :   -0.189657    0.003378
  13 C :   -0.235551    0.001011
  14 N :    0.154582    0.069600
  15 C :   -0.218799    0.002686
  16 N :    0.229144    0.000696
  17 C :   -0.185350    0.003471
  18 C :   -0.234795    0.000782
  19 N :    0.155078    0.071553
  20 Cu:    0.089121    0.681154
  21 C :   -0.246354    0.000776
  22 H :    0.143980    0.000083
  23 H :    0.144435    0.000171
  24 H :    0.147028    0.000042
  25 C :   -0.246203    0.000718
  26 H :    0.144907    0.000148
  27 H :    0.146901    0.000039
  28 H :    0.144723    0.000079
  29 C :   -0.246074    0.000716
  30 H :    0.144468    0.000090
  31 H :    0.144440    0.000147
  32 H :    0.147320    0.000042
  33 C :   -0.246078    0.000748
  34 H :    0.144578    0.000084
  35 H :    0.144306    0.000164
  36 H :    0.148255    0.000048
  37 H :    0.148389    0.000328
  38 H :    0.150197    0.000208
  39 H :    0.150498    0.000391
  40 H :    0.147520    0.000343
  41 H :    0.146046    0.000425
  42 H :    0.150233    0.000295
  43 H :    0.148591    0.000321
  44 H :    0.147332    0.000240
  45 H :    0.213541    0.000665
  46 H :    0.213885    0.000641
  47 H :    0.214278    0.000672
  48 H :    0.214232    0.000670
  49 O :   -0.203807   -0.000774
  50 H :    0.182782   -0.000154
  51 H :    0.183280   -0.000132

  Mayer bond orders larger than 0.100000
B(  0-C ,  1-N ) :   1.1420 B(  0-C ,  2-C ) :   1.6513 B(  0-C , 25-C ) :   0.8998
B(  1-N ,  3-C ) :   1.3088 B(  1-N , 47-H ) :   0.9032 B(  2-C ,  4-N ) :   1.1679
B(  2-C , 37-H ) :   0.9438 B(  3-C ,  4-N ) :   1.4488 B(  3-C , 38-H ) :   0.9332
B(  4-N , 20-Cu) :   0.5913 B(  5-C ,  6-N ) :   1.1440 B(  5-C ,  7-C ) :   1.6068
B(  5-C , 33-C ) :   0.9007 B(  6-N ,  8-C ) :   1.2986 B(  6-N , 46-H ) :   0.9034
B(  7-C ,  9-N ) :   1.1531 B(  7-C , 39-H ) :   0.9691 B(  8-C ,  9-N ) :   1.4321
B(  8-C , 40-H ) :   0.9378 B(  9-N , 20-Cu) :   0.6142 B( 10-C , 11-N ) :   1.1435
B( 10-C , 12-C ) :   1.6130 B( 10-C , 29-C ) :   0.9000 B( 11-N , 13-C ) :   1.3014
B( 11-N , 48-H ) :   0.9038 B( 12-C , 14-N ) :   1.1652 B( 12-C , 41-H ) :   0.9705
B( 13-C , 14-N ) :   1.4276 B( 13-C , 42-H ) :   0.9449 B( 14-N , 20-Cu) :   0.6237
B( 15-C , 16-N ) :   1.1373 B( 15-C , 17-C ) :   1.6424 B( 15-C , 21-C ) :   0.8982
B( 16-N , 18-C ) :   1.3117 B( 16-N , 45-H ) :   0.9037 B( 17-C , 19-N ) :   1.1733
B( 17-C , 43-H ) :   0.9490 B( 18-C , 19-N ) :   1.4334 B( 18-C , 44-H ) :   0.9399
B( 19-N , 20-Cu) :   0.6036 B( 21-C , 22-H ) :   0.9559 B( 21-C , 23-H ) :   0.9530
B( 21-C , 24-H ) :   0.9862 B( 25-C , 26-H ) :   0.9517 B( 25-C , 27-H ) :   0.9864
B( 25-C , 28-H ) :   0.9554 B( 29-C , 30-H ) :   0.9565 B( 29-C , 31-H ) :   0.9515
B( 29-C , 32-H ) :   0.9870 B( 33-C , 34-H ) :   0.9539 B( 33-C , 35-H ) :   0.9531
B( 33-C , 36-H ) :   0.9866 B( 49-O , 50-H ) :   0.8807 B( 49-O , 51-H ) :   0.8789

-----------------------------------------------------------------------------
         ABSORPTION SPECTRUM VIA TRANSITION ELECTRIC DIPOLE MOMENTS
-----------------------------------------------------------------------------
State   Energy    Wavelength  fosc         T2        TX        TY        TZ
        (cm-1)      (nm)                 (au**2)    (au)      (au)      (au)
-----------------------------------------------------------------------------
   1   17162.5    582.7   0.000003420   0.00007   0.00199  -0.00423  -0.00661
   2   18802.6    531.8   0.000309168   0.00541   0.03684   0.06345  -0.00547
   3   18922.1    528.5   0.000364193   0.00634  -0.06272  -0.04742  -0.01239
   4   19781.3    505.5   0.000754881   0.01256  -0.09038   0.06626  -0.00214
   5   22014.3    454.3   0.000058946   0.00088   0.01147  -0.02692   0.00505
   6   22650.7    441.5   0.001054742   0.01533  -0.00950  -0.12315  -0.00860
   7   23519.3    425.2   0.000712730   0.00998   0.09981   0.00380   0.00028
   8   24568.0    407.0   0.000009195   0.00012  -0.00990   0.00005  -0.00503
   9   34633.3    288.7   0.000058768   0.00056  -0.00758  -0.02186  -0.00482
  10   34934.2    286.3   0.000018399   0.00017   0.01183  -0.00502   0.00288
  11   35082.6    285.0   0.000087294   0.00082  -0.02462  -0.01332  -0.00596
  12   35176.9    284.3   0.000820645   0.00768  -0.08168   0.03145   0.00431
  13   35257.7    283.6   0.000059602   0.00056  -0.00722   0.02243   0.00121
  14   36591.3    273.3   0.032790226   0.29501  -0.15659  -0.51851  -0.04049
  15   37448.1    267.0   0.021176193   0.18616  -0.39616   0.16855  -0.02844
  16   39994.8    250.0   0.002623358   0.02159   0.06713   0.12778   0.02758
  17   40118.2    249.3   0.000024061   0.00020  -0.00457   0.00994   0.00882
  18   40555.9    246.6   0.000059130   0.00048  -0.01197  -0.00898  -0.01600
  19   40655.0    246.0   0.000052691   0.00043  -0.01486   0.00718  -0.01243
  20   40683.3    245.8   0.000000887   0.00001  -0.00131   0.00203  -0.00115
  21   43738.3    228.6   0.161458870   1.21528  -1.03526  -0.33877  -0.16956
  22   44022.7    227.2   0.159823524   1.19520  -0.34280   1.03647   0.05850
  23   44519.9    224.6   0.013823584   0.10222  -0.13214   0.28772  -0.04444
  24   44714.2    223.6   0.005990811   0.04411  -0.19931  -0.05712  -0.03351
  25   44779.4    223.3   0.005907314   0.04343  -0.15674   0.10671  -0.08645
  26   45227.7    221.1   0.004852025   0.03532   0.10190   0.02012  -0.15662
  27   45345.6    220.5   0.037201519   0.27009  -0.04376  -0.51636   0.03923
  28   45410.8    220.2   0.011789033   0.08547   0.20465   0.13091  -0.16263
  29   45556.6    219.5   0.011681026   0.08441  -0.11512  -0.25815   0.06723
  30   45731.7    218.7   0.004817043   0.03468  -0.14747   0.10845   0.03418
  31   45783.1    218.4   0.022744236   0.16355   0.35454   0.07319  -0.18026
  32   45855.2    218.1   0.014585672   0.10472   0.28234   0.12295  -0.09942
  33   45906.5    217.8   0.017917491   0.12849   0.31956   0.07917  -0.14181
  34   46030.1    217.2   0.001181811   0.00845   0.06498  -0.01344  -0.06363
  35   46079.1    217.0   0.000317052   0.00227  -0.04744  -0.00207   0.00321
  36   46165.8    216.6   0.013573860   0.09680   0.29277   0.05802  -0.08783
  37   46293.2    216.0   0.004463132   0.03174  -0.14801   0.06484   0.07502
  38   46321.4    215.9   0.022300591   0.15849   0.20202  -0.34130   0.03456
  39   46481.2    215.1   0.010431410   0.07388  -0.18090   0.20278   0.00619
  40   46562.7    214.8   0.002383420   0.01685   0.09704   0.08484   0.01542
  41   46721.5    214.0   0.010245214   0.07219   0.06600   0.23450  -0.11334
  42   46850.2    213.4   0.015008333   0.10546  -0.21788  -0.23874   0.03154
  43   47082.6    212.4   0.003074967   0.02150   0.05123  -0.13137   0.04023
  44   47191.8    211.9   0.005897320   0.04114  -0.20177  -0.01881   0.00857
  45   47329.5    211.3   0.009168539   0.06377   0.25059  -0.01003   0.02963
  46   47413.1    210.9   0.017906929   0.12434   0.02064  -0.32132   0.14375
  47   47618.9    210.0   0.003469335   0.02399   0.08822  -0.10611   0.07031
  48   47720.5    209.6   0.000913714   0.00630   0.04869  -0.05267  -0.03404
  49   47738.8    209.5   0.005441672   0.03753   0.06135   0.16154  -0.08757
  50   47816.5    209.1   0.004596089   0.03164  -0.08151  -0.14408   0.06512
  51   47840.6    209.0   0.000614915   0.00423  -0.03647  -0.05258  -0.01169
  52   47942.9    208.6   0.002739125   0.01881  -0.11508  -0.06419  -0.03803
  53   48131.0    207.8   0.005963543   0.04079  -0.16394  -0.10695  -0.04977
  54   48209.9    207.4   0.012482744   0.08524  -0.25596   0.10432   0.09405
  55   48273.9    207.2   0.004386427   0.02991   0.13323  -0.10244  -0.04086
  56   48317.6    207.0   0.008165536   0.05564  -0.18361   0.14788   0.00753
  57   48378.2    206.7   0.013918442   0.09471  -0.27036   0.13570   0.05659
  58   48523.9    206.1   0.002371840   0.01609  -0.10754   0.06722   0.00294
  59   48783.5    205.0   0.006631814   0.04475   0.16481  -0.11421   0.06744
  60   48863.2    204.7   0.019764334   0.13316   0.29716  -0.09443   0.18958

FINAL SINGLE POINT ENERGY     -2801.694742163162

DIPOLE MOMENT
-------------
                                X             Y             Z
Electronic contribution:      4.68053      -2.61392       0.47931
Nuclear contribution   :     -4.21630       2.11566      -0.00905
                        -----------------------------------------
Total Dipole Moment    :      0.46422      -0.49826       0.47027
                        -----------------------------------------
Magnitude (a.u.)       :      0.82760
Magnitude (Debye)      :      2.10359

Rotational constants in cm-1:     0.006097     0.005976     0.003416
Rotational constants in MHz :   182.792290   179.148532   102.397818

                             ****ORCA TERMINATED NORMALLY****
TOTAL RUN TIME: 0 days 4 hours 3 minutes 34 seconds 81 msec
