                         Program Version 5.0.4 -  RELEASE  -
|  1> ! UKS B3LYP ZORA-def2-TZVP def2/J RIJCOSX TightSCF ZORA
|  2> %tddft
|  3> doquad true
|  4> nroots 60
|  5> maxdim 10
|  6> end
|  7> * xyz 1 1
|  8>  C                  2.60145900   -3.42577500   -0.04678500
|  9>  N                  2.68472600   -3.07125700    1.29064400
| 10>  C                  1.69340000   -2.53773700   -0.58155100
| 11>  C                  1.85135400   -2.01370200    1.51410500
| 12>  N                  1.23237700   -1.66438000    0.39152900
| 13>  C                 -4.25623000   -0.55441700    0.96826600
| 14>  N                 -3.72369400   -1.65456100    1.62151700
| 15>  C                 -3.16299500    0.07847300    0.41586100
| 16>  C                 -2.37024100   -1.65233700    1.44872800
| 17>  N                 -1.99602900   -0.60855200    0.71834900
| 18>  C                  2.05214100    3.03032000    2.09548500
| 19>  N                  0.75648200    3.26709200    2.52666900
| 20>  C                  1.94677200    1.91710300    1.28895800
| 21>  C                 -0.06398900    2.32122800    1.98475700
| 22>  N                  0.63065800    1.48311500    1.22466800
| 23>  C                  0.15558800    1.53920300   -3.81212400
| 24>  N                 -0.70837400    0.47391700   -4.01267200
| 25>  C                  0.46054900    1.48621500   -2.46929700
| 26>  C                 -0.89188100   -0.16838000   -2.82254900
| 27>  N                 -0.19262800    0.42503500   -1.86148500
| 28>  Cu                -0.08837500   -0.10933200    0.12522100
| 29>  C                  0.58032700    2.46390100   -4.90228000
| 30>  H                  1.10992800    1.93228500   -5.70873200
| 31>  H                 -0.27674800    2.98876300   -5.35327000
| 32>  H                  1.26234900    3.22341700   -4.50003500
| 33>  C                  3.38372300   -4.54497000   -0.64627600
| 34>  H                  3.14696800   -5.51139200   -0.17360500
| 35>  H                  3.15037400   -4.63046600   -1.71494200
| 36>  H                  4.46931600   -4.38322900   -0.55290100
| 37>  C                  3.21404000    3.87651100    2.49312600
| 38>  H                  3.09013300    4.92232000    2.17004500
| 39>  H                  3.36634100    3.87919800    3.58410500
| 40>  H                  4.13063500    3.49094100    2.02932900
| 41>  C                 -5.71447100   -0.24241500    0.94721100
| 42>  H                 -6.30058400   -1.05042200    0.48136400
| 43>  H                 -6.11487200   -0.08027900    1.96052500
| 44>  H                 -5.89046900    0.67318000    0.36874200
| 45>  H                  1.35060400   -2.46881500   -1.60906400
| 46>  H                  1.73644200   -1.53467100    2.48133100
| 47>  H                 -3.14563300    0.98151300   -0.18655600
| 48>  H                 -1.71273800   -2.41364300    1.85630600
| 49>  H                  2.73788400    1.40085900    0.75385700
| 50>  H                 -1.13310600    2.27927900    2.16754900
| 51>  H                  1.10653700    2.14964700   -1.90295500
| 52>  H                 -1.53268900   -1.03619700   -2.70235300
| 53>  H                 -1.13422100    0.21573100   -4.89783300
| 54>  H                 -4.25395100   -2.34906800    2.13946200
| 55>  H                  3.27207300   -3.52090700    1.98666100
| 56>  H                  0.46639200    4.02039100    3.14321400
| 57> *
| 58>
| 59>                          ****END OF INPUT****

CARTESIAN COORDINATES (ANGSTROEM)
---------------------------------
  C      2.601459   -3.425775   -0.046785
  N      2.684726   -3.071257    1.290644
  C      1.693400   -2.537737   -0.581551
  C      1.851354   -2.013702    1.514105
  N      1.232377   -1.664380    0.391529
  C     -4.256230   -0.554417    0.968266
  N     -3.723694   -1.654561    1.621517
  C     -3.162995    0.078473    0.415861
  C     -2.370241   -1.652337    1.448728
  N     -1.996029   -0.608552    0.718349
  C      2.052141    3.030320    2.095485
  N      0.756482    3.267092    2.526669
  C      1.946772    1.917103    1.288958
  C     -0.063989    2.321228    1.984757
  N      0.630658    1.483115    1.224668
  C      0.155588    1.539203   -3.812124
  N     -0.708374    0.473917   -4.012672
  C      0.460549    1.486215   -2.469297
  C     -0.891881   -0.168380   -2.822549
  N     -0.192628    0.425035   -1.861485
  Cu    -0.088375   -0.109332    0.125221
  C      0.580327    2.463901   -4.902280
  H      1.109928    1.932285   -5.708732
  H     -0.276748    2.988763   -5.353270
  H      1.262349    3.223417   -4.500035
  C      3.383723   -4.544970   -0.646276
  H      3.146968   -5.511392   -0.173605
  H      3.150374   -4.630466   -1.714942
  H      4.469316   -4.383229   -0.552901
  C      3.214040    3.876511    2.493126
  H      3.090133    4.922320    2.170045
  H      3.366341    3.879198    3.584105
  H      4.130635    3.490941    2.029329
  C     -5.714471   -0.242415    0.947211
  H     -6.300584   -1.050422    0.481364
  H     -6.114872   -0.080279    1.960525
  H     -5.890469    0.673180    0.368742
  H      1.350604   -2.468815   -1.609064
  H      1.736442   -1.534671    2.481331
  H     -3.145633    0.981513   -0.186556
  H     -1.712738   -2.413643    1.856306
  H      2.737884    1.400859    0.753857
  H     -1.133106    2.279279    2.167549
  H      1.106537    2.149647   -1.902955
  H     -1.532689   -1.036197   -2.702353
  H     -1.134221    0.215731   -4.897833
  H     -4.253951   -2.349068    2.139462
  H      3.272073   -3.520907    1.986661
  H      0.466392    4.020391    3.143214

 Total Charge           Charge          ....    1
 Multiplicity           Mult            ....    1
 Number of Electrons    NEL             ....  204
 Basis Dimension        Dim             ....  967

ORBITAL ENERGIES
----------------
                 SPIN UP ORBITALS
  NO   OCC          E(Eh)            E(eV)
   0   1.0000    -330.501997     -8993.4166
   1   1.0000     -39.700047     -1080.2932
   2   1.0000     -34.227367      -931.3740
   3   1.0000     -34.227355      -931.3737
   4   1.0000     -34.227342      -931.3733
   5   1.0000     -14.488206      -394.2441
   6   1.0000     -14.486344      -394.1935
   7   1.0000     -14.486265      -394.1913
   8   1.0000     -14.484330      -394.1386
   9   1.0000     -14.435238      -392.8028
  10   1.0000     -14.433773      -392.7629
  11   1.0000     -14.432906      -392.7393
  12   1.0000     -14.431459      -392.7000
  13   1.0000     -10.337212      -281.2898
  14   1.0000     -10.335672      -281.2479
  15   1.0000     -10.335229      -281.2359
  16   1.0000     -10.333732      -281.1951
  17   1.0000     -10.315689      -280.7042
  18   1.0000     -10.313688      -280.6497
  19   1.0000     -10.313182      -280.6360
  20   1.0000     -10.311081      -280.5788
  21   1.0000     -10.290440      -280.0171
  22   1.0000     -10.288459      -279.9632
  23   1.0000     -10.287890      -279.9477
  24   1.0000     -10.285675      -279.8875
  25   1.0000     -10.279949      -279.7316
  26   1.0000     -10.278231      -279.6849
  27   1.0000     -10.277628      -279.6685
  28   1.0000     -10.275869      -279.6206
  29   1.0000      -4.445894      -120.9789
  30   1.0000      -2.836329       -77.1804
  31   1.0000      -2.836232       -77.1778
  32   1.0000      -2.835891       -77.1685
  33   1.0000      -1.111332       -30.2409
  34   1.0000      -1.109481       -30.1905
  35   1.0000      -1.109219       -30.1834
  36   1.0000      -1.107303       -30.1312
  37   1.0000      -0.972531       -26.4639
  38   1.0000      -0.970552       -26.4101
  39   1.0000      -0.969513       -26.3818
  40   1.0000      -0.967920       -26.3384
  41   1.0000      -0.868822       -23.6419
  42   1.0000      -0.866940       -23.5906
  43   1.0000      -0.866610       -23.5817
  44   1.0000      -0.864666       -23.5288
  45   1.0000      -0.785162       -21.3653
  46   1.0000      -0.783304       -21.3148
  47   1.0000      -0.782905       -21.3039
  48   1.0000      -0.781062       -21.2538
  49   1.0000      -0.713658       -19.4196
  50   1.0000      -0.712062       -19.3762
  51   1.0000      -0.710860       -19.3435
  52   1.0000      -0.708752       -19.2861
  53   1.0000      -0.685914       -18.6647
  54   1.0000      -0.684036       -18.6136
  55   1.0000      -0.683672       -18.6037
  56   1.0000      -0.681475       -18.5439
  57   1.0000      -0.631886       -17.1945
  58   1.0000      -0.629376       -17.1262
  59   1.0000      -0.629119       -17.1192
  60   1.0000      -0.627688       -17.0803
  61   1.0000      -0.551220       -14.9994
  62   1.0000      -0.548846       -14.9349
  63   1.0000      -0.547438       -14.8965
  64   1.0000      -0.545860       -14.8536
  65   1.0000      -0.542899       -14.7730
  66   1.0000      -0.541115       -14.7245
  67   1.0000      -0.540543       -14.7089
  68   1.0000      -0.538797       -14.6614
  69   1.0000      -0.509000       -13.8506
  70   1.0000      -0.508236       -13.8298
  71   1.0000      -0.507283       -13.8039
  72   1.0000      -0.506618       -13.7858
  73   1.0000      -0.506258       -13.7760
  74   1.0000      -0.505953       -13.7677
  75   1.0000      -0.504484       -13.7277
  76   1.0000      -0.503429       -13.6990
  77   1.0000      -0.493161       -13.4196
  78   1.0000      -0.491392       -13.3715
  79   1.0000      -0.490786       -13.3550
  80   1.0000      -0.489038       -13.3074
  81   1.0000      -0.487699       -13.2710
  82   1.0000      -0.483715       -13.1626
  83   1.0000      -0.482487       -13.1291
  84   1.0000      -0.480930       -13.0868
  85   1.0000      -0.445070       -12.1110
  86   1.0000      -0.420922       -11.4539
  87   1.0000      -0.419983       -11.4283
  88   1.0000      -0.418947       -11.4001
  89   1.0000      -0.393792       -10.7156
  90   1.0000      -0.389775       -10.6063
  91   1.0000      -0.387499       -10.5444
  92   1.0000      -0.385871       -10.5001
  93   1.0000      -0.324530        -8.8309
  94   1.0000      -0.322151        -8.7662
  95   1.0000      -0.320922        -8.7327
  96   1.0000      -0.319327        -8.6893
  97   1.0000      -0.283029        -7.7016
  98   1.0000      -0.282365        -7.6835
  99   1.0000      -0.261607        -7.1187
 100   1.0000      -0.258864        -7.0441
 101   1.0000      -0.258704        -7.0397
 102   0.0000      -0.086009        -2.3404
 103   0.0000      -0.081680        -2.2226
 104   0.0000      -0.079970        -2.1761
 105   0.0000      -0.079483        -2.1628
 106   0.0000      -0.069030        -1.8784

                 SPIN DOWN ORBITALS
  NO   OCC          E(Eh)            E(eV)
   0   1.0000    -330.501997     -8993.4166
   1   1.0000     -39.700047     -1080.2932
   2   1.0000     -34.227367      -931.3740
   3   1.0000     -34.227355      -931.3737
   4   1.0000     -34.227342      -931.3733
   5   1.0000     -14.488206      -394.2441
   6   1.0000     -14.486344      -394.1935
   7   1.0000     -14.486265      -394.1913
   8   1.0000     -14.484330      -394.1386
   9   1.0000     -14.435238      -392.8028
  10   1.0000     -14.433773      -392.7629
  11   1.0000     -14.432906      -392.7393
  12   1.0000     -14.431459      -392.7000
  13   1.0000     -10.337212      -281.2898
  14   1.0000     -10.335672      -281.2479
  15   1.0000     -10.335229      -281.2359
  16   1.0000     -10.333732      -281.1951
  17   1.0000     -10.315689      -280.7042
  18   1.0000     -10.313688      -280.6497
  19   1.0000     -10.313182      -280.6360
  20   1.0000     -10.311081      -280.5788
  21   1.0000     -10.290440      -280.0171
  22   1.0000     -10.288459      -279.9632
  23   1.0000     -10.287890      -279.9477
  24   1.0000     -10.285675      -279.8875
  25   1.0000     -10.279949      -279.7316
  26   1.0000     -10.278231      -279.6849
  27   1.0000     -10.277628      -279.6685
  28   1.0000     -10.275869      -279.6206
  29   1.0000      -4.445894      -120.9789
  30   1.0000      -2.836329       -77.1804
  31   1.0000      -2.836232       -77.1778
  32   1.0000      -2.835891       -77.1685
  33   1.0000      -1.111332       -30.2409
  34   1.0000      -1.109481       -30.1905
  35   1.0000      -1.109219       -30.1834
  36   1.0000      -1.107303       -30.1312
  37   1.0000      -0.972531       -26.4639
  38   1.0000      -0.970552       -26.4101
  39   1.0000      -0.969513       -26.3818
  40   1.0000      -0.967920       -26.3384
  41   1.0000      -0.868822       -23.6419
  42   1.0000      -0.866940       -23.5906
  43   1.0000      -0.866610       -23.5817
  44   1.0000      -0.864666       -23.5288
  45   1.0000      -0.785162       -21.3653
  46   1.0000      -0.783304       -21.3148
  47   1.0000      -0.782905       -21.3039
  48   1.0000      -0.781062       -21.2538
  49   1.0000      -0.713658       -19.4196
  50   1.0000      -0.712062       -19.3762
  51   1.0000      -0.710860       -19.3435
  52   1.0000      -0.708752       -19.2861
  53   1.0000      -0.685914       -18.6647
  54   1.0000      -0.684036       -18.6136
  55   1.0000      -0.683672       -18.6037
  56   1.0000      -0.681475       -18.5439
  57   1.0000      -0.631886       -17.1945
  58   1.0000      -0.629376       -17.1262
  59   1.0000      -0.629119       -17.1192
  60   1.0000      -0.627688       -17.0803
  61   1.0000      -0.551220       -14.9994
  62   1.0000      -0.548846       -14.9349
  63   1.0000      -0.547438       -14.8965
  64   1.0000      -0.545860       -14.8536
  65   1.0000      -0.542899       -14.7730
  66   1.0000      -0.541115       -14.7245
  67   1.0000      -0.540543       -14.7089
  68   1.0000      -0.538797       -14.6614
  69   1.0000      -0.509000       -13.8506
  70   1.0000      -0.508236       -13.8298
  71   1.0000      -0.507283       -13.8039
  72   1.0000      -0.506618       -13.7858
  73   1.0000      -0.506258       -13.7760
  74   1.0000      -0.505953       -13.7677
  75   1.0000      -0.504484       -13.7277
  76   1.0000      -0.503429       -13.6990
  77   1.0000      -0.493161       -13.4196
  78   1.0000      -0.491392       -13.3715
  79   1.0000      -0.490786       -13.3550
  80   1.0000      -0.489038       -13.3074
  81   1.0000      -0.487699       -13.2710
  82   1.0000      -0.483715       -13.1626
  83   1.0000      -0.482487       -13.1291
  84   1.0000      -0.480930       -13.0868
  85   1.0000      -0.445070       -12.1110
  86   1.0000      -0.420922       -11.4539
  87   1.0000      -0.419983       -11.4283
  88   1.0000      -0.418947       -11.4001
  89   1.0000      -0.393792       -10.7156
  90   1.0000      -0.389775       -10.6063
  91   1.0000      -0.387499       -10.5444
  92   1.0000      -0.385871       -10.5001
  93   1.0000      -0.324530        -8.8309
  94   1.0000      -0.322151        -8.7662
  95   1.0000      -0.320922        -8.7327
  96   1.0000      -0.319327        -8.6893
  97   1.0000      -0.283029        -7.7016
  98   1.0000      -0.282365        -7.6835
  99   1.0000      -0.261607        -7.1187
 100   1.0000      -0.258864        -7.0441
 101   1.0000      -0.258704        -7.0397
 102   0.0000      -0.086009        -2.3404
 103   0.0000      -0.081680        -2.2226
 104   0.0000      -0.079970        -2.1761
 105   0.0000      -0.079483        -2.1628
 106   0.0000      -0.069030        -1.8784

MULLIKEN ATOMIC CHARGES AND SPIN POPULATIONS
--------------------------------------------
   0 C :    0.194303    0.000000
   1 N :   -0.252267    0.000000
   2 C :   -0.176590    0.000000
   3 C :    0.029585    0.000000
   4 N :   -0.128219    0.000000
   5 C :    0.207460    0.000000
   6 N :   -0.253308    0.000000
   7 C :   -0.192390    0.000000
   8 C :    0.026103    0.000000
   9 N :   -0.129920    0.000000
  10 C :    0.209751    0.000000
  11 N :   -0.254669    0.000000
  12 C :   -0.193563    0.000000
  13 C :    0.025366    0.000000
  14 N :   -0.133053    0.000000
  15 C :    0.193988    0.000000
  16 N :   -0.253162    0.000000
  17 C :   -0.178945    0.000000
  18 C :    0.030724    0.000000
  19 N :   -0.129997    0.000000
  20 Cu:    0.033874    0.000000
  21 C :   -0.383098    0.000000
  22 H :    0.140376    0.000000
  23 H :    0.139981    0.000000
  24 H :    0.139110    0.000000
  25 C :   -0.382121    0.000000
  26 H :    0.140089    0.000000
  27 H :    0.138983    0.000000
  28 H :    0.140957    0.000000
  29 C :   -0.382827    0.000000
  30 H :    0.141258    0.000000
  31 H :    0.140193    0.000000
  32 H :    0.139520    0.000000
  33 C :   -0.382732    0.000000
  34 H :    0.141116    0.000000
  35 H :    0.141025    0.000000
  36 H :    0.139755    0.000000
  37 H :    0.137496    0.000000
  38 H :    0.164664    0.000000
  39 H :    0.139979    0.000000
  40 H :    0.165347    0.000000
  41 H :    0.140602    0.000000
  42 H :    0.168017    0.000000
  43 H :    0.142968    0.000000
  44 H :    0.163751    0.000000
  45 H :    0.237272    0.000000
  46 H :    0.237968    0.000000
  47 H :    0.237752    0.000000
  48 H :    0.237528    0.000000
Sum of atomic charges         :    1.0000000

LOEWDIN ATOMIC CHARGES AND SPIN POPULATIONS
-------------------------------------------
   0 C :   -0.241231    0.000000
   1 N :    0.202924    0.000000
   2 C :   -0.198318    0.000000
   3 C :   -0.259477    0.000000
   4 N :    0.168408    0.000000
   5 C :   -0.242203    0.000000
   6 N :    0.203903    0.000000
   7 C :   -0.206052    0.000000
   8 C :   -0.253402    0.000000
   9 N :    0.168063    0.000000
  10 C :   -0.242232    0.000000
  11 N :    0.204014    0.000000
  12 C :   -0.206013    0.000000
  13 C :   -0.253131    0.000000
  14 N :    0.168438    0.000000
  15 C :   -0.241212    0.000000
  16 N :    0.202950    0.000000
  17 C :   -0.197702    0.000000
  18 C :   -0.259467    0.000000
  19 N :    0.168803    0.000000
  20 Cu:   -0.213785    0.000000
  21 C :   -0.261954    0.000000
  22 H :    0.134549    0.000000
  23 H :    0.134405    0.000000
  24 H :    0.141781    0.000000
  25 C :   -0.261716    0.000000
  26 H :    0.134469    0.000000
  27 H :    0.141791    0.000000
  28 H :    0.134836    0.000000
  29 C :   -0.262040    0.000000
  30 H :    0.134891    0.000000
  31 H :    0.134517    0.000000
  32 H :    0.141710    0.000000
  33 C :   -0.261897    0.000000
  34 H :    0.134884    0.000000
  35 H :    0.134801    0.000000
  36 H :    0.141772    0.000000
  37 H :    0.141518    0.000000
  38 H :    0.140718    0.000000
  39 H :    0.142764    0.000000
  40 H :    0.140184    0.000000
  41 H :    0.142789    0.000000
  42 H :    0.140575    0.000000
  43 H :    0.142471    0.000000
  44 H :    0.140463    0.000000
  45 H :    0.199268    0.000000
  46 H :    0.199938    0.000000
  47 H :    0.199455    0.000000
  48 H :    0.199783    0.000000

  Mayer bond orders larger than 0.100000
B(  0-C ,  1-N ) :   1.1350 B(  0-C ,  2-C ) :   1.6210 B(  0-C , 25-C ) :   0.8899
B(  1-N ,  3-C ) :   1.2573 B(  1-N , 47-H ) :   0.9136 B(  2-C ,  4-N ) :   1.2574
B(  2-C , 37-H ) :   0.9710 B(  3-C ,  4-N ) :   1.5162 B(  3-C , 38-H ) :   0.9497
B(  4-N , 20-Cu) :   0.4448 B(  5-C ,  6-N ) :   1.1383 B(  5-C ,  7-C ) :   1.6152
B(  5-C , 33-C ) :   0.8912 B(  6-N ,  8-C ) :   1.2589 B(  6-N , 46-H ) :   0.9137
B(  7-C ,  9-N ) :   1.2224 B(  7-C , 39-H ) :   0.9766 B(  8-C ,  9-N ) :   1.5512
B(  8-C , 40-H ) :   0.9471 B(  9-N , 20-Cu) :   0.4431 B( 10-C , 11-N ) :   1.1382
B( 10-C , 12-C ) :   1.6133 B( 10-C , 29-C ) :   0.8911 B( 11-N , 13-C ) :   1.2595
B( 11-N , 48-H ) :   0.9139 B( 12-C , 14-N ) :   1.2194 B( 12-C , 41-H ) :   0.9769
B( 13-C , 14-N ) :   1.5511 B( 13-C , 42-H ) :   0.9460 B( 14-N , 20-Cu) :   0.4362
B( 15-C , 16-N ) :   1.1348 B( 15-C , 17-C ) :   1.6204 B( 15-C , 21-C ) :   0.8894
B( 16-N , 18-C ) :   1.2568 B( 16-N , 45-H ) :   0.9138 B( 17-C , 19-N ) :   1.2597
B( 17-C , 43-H ) :   0.9692 B( 18-C , 19-N ) :   1.5163 B( 18-C , 44-H ) :   0.9502
B( 19-N , 20-Cu) :   0.4390 B( 21-C , 22-H ) :   0.9632 B( 21-C , 23-H ) :   0.9628
B( 21-C , 24-H ) :   0.9902 B( 25-C , 26-H ) :   0.9630 B( 25-C , 27-H ) :   0.9902
B( 25-C , 28-H ) :   0.9627 B( 29-C , 30-H ) :   0.9628 B( 29-C , 31-H ) :   0.9616
B( 29-C , 32-H ) :   0.9908 B( 33-C , 34-H ) :   0.9620 B( 33-C , 35-H ) :   0.9623
B( 33-C , 36-H ) :   0.9907

-----------------------------------------------------------------------------
         ABSORPTION SPECTRUM VIA TRANSITION ELECTRIC DIPOLE MOMENTS
-----------------------------------------------------------------------------
State   Energy    Wavelength  fosc         T2        TX        TY        TZ
        (cm-1)      (nm)                 (au**2)    (au)      (au)      (au)
-----------------------------------------------------------------------------
   1   29840.6    335.1   0.000000000   0.00000  -0.00000  -0.00000  -0.00000
   2   29979.7    333.6   0.000000000   0.00000  -0.00000   0.00000  -0.00000
   3   30349.5    329.5   0.000000000   0.00000   0.00000   0.00000   0.00000
   4   30573.6    327.1   0.000000000   0.00000   0.00000  -0.00000   0.00000
   5   30683.1    325.9   0.000000000   0.00000  -0.00000   0.00000  -0.00000
   6   30771.0    325.0   0.003880747   0.04152  -0.15955   0.08817  -0.09104
   7   30778.4    324.9   0.000000000   0.00000   0.00000  -0.00000   0.00000
   8   30864.6    324.0   0.000000000   0.00000  -0.00000   0.00000  -0.00000
   9   30888.7    323.7   0.000844154   0.00900   0.05164  -0.02756   0.07464
  10   31109.3    321.4   0.000000000   0.00000   0.00000  -0.00000  -0.00000
  11   31259.1    319.9   0.000503391   0.00530  -0.03198  -0.05230   0.03929
  12   31478.5    317.7   0.000000000   0.00000  -0.00000   0.00000   0.00000
  13   31531.6    317.1   0.000000000   0.00000   0.00000   0.00000  -0.00000
  14   31608.3    316.4   0.002322522   0.02419  -0.03679  -0.04182   0.14522
  15   31760.2    314.9   0.001313266   0.01361   0.07350   0.08979   0.01218
  16   31814.0    314.3   0.018992645   0.19654   0.44155   0.02630  -0.02964
  17   31884.3    313.6   0.005071313   0.05236   0.11681   0.03204   0.19414
  18   31998.7    312.5   0.000000000   0.00000   0.00000   0.00000   0.00000
  19   32129.2    311.2   0.002637252   0.02702   0.01698   0.16300   0.01290
  20   32180.8    310.7   0.000000000   0.00000   0.00000   0.00000   0.00000
  21   32270.5    309.9   0.012124389   0.12369  -0.14722   0.08027   0.30915
  22   32552.6    307.2   0.021084648   0.21323   0.03976  -0.45898  -0.03142
  23   32917.3    303.8   0.024661434   0.24664  -0.18909   0.20517  -0.41084
  24   33376.9    299.6   0.006224161   0.06139   0.03368  -0.04251  -0.24177
  25   34610.1    288.9   0.000000000   0.00000  -0.00000   0.00000   0.00000
  26   34805.7    287.3   0.000000000   0.00000   0.00000   0.00000   0.00000
  27   35124.7    284.7   0.000000000   0.00000  -0.00000  -0.00000  -0.00000
  28   35380.6    282.6   0.000000000   0.00000   0.00000   0.00000   0.00000
  29   35520.9    281.5   0.000000000   0.00000  -0.00000  -0.00000   0.00000
  30   35558.3    281.2   0.000000000   0.00000   0.00000   0.00000  -0.00000
  31   35912.3    278.5   0.003788171   0.03473   0.10626   0.02217  -0.15147
  32   35949.8    278.2   0.003003260   0.02750   0.01934  -0.16458   0.00646
  33   35982.1    277.9   0.006315051   0.05778  -0.00297  -0.20457   0.12618
  34   36051.8    277.4   0.000000000   0.00000  -0.00000   0.00000   0.00000
  35   36101.2    277.0   0.004218983   0.03847  -0.12488   0.09415   0.11838
  36   36148.7    276.6   0.000000000   0.00000  -0.00000   0.00000   0.00000
  37   36171.2    276.5   0.000000000   0.00000  -0.00000   0.00000   0.00000
  38   36541.1    273.7   0.004047928   0.03647   0.15664  -0.02913   0.10528
  39   36590.5    273.3   0.000000000   0.00000  -0.00000   0.00000   0.00000
  40   36798.8    271.7   0.000000000   0.00000  -0.00000   0.00000   0.00000
  41   36803.8    271.7   0.008118185   0.07262  -0.24237   0.11773  -0.00374
  42   36949.3    270.6   0.007442489   0.06631   0.10388  -0.02734  -0.23404
  43   37061.6    269.8   0.000000000   0.00000   0.00000   0.00000  -0.00000
  44   37089.2    269.6   0.008319498   0.07385  -0.20344  -0.16517   0.07193
  45   37168.9    269.0   0.011929314   0.10566   0.03408   0.32263  -0.02028
  46   37223.7    268.6   0.000000000   0.00000   0.00000   0.00000  -0.00000
  47   37381.2    267.5   0.000000000   0.00000   0.00000   0.00000  -0.00000
  48   37494.4    266.7   0.000000000   0.00000   0.00000  -0.00000   0.00000
  49   37553.7    266.3   0.024041405   0.21076  -0.28341  -0.10798  -0.34464
  50   38060.5    262.7   0.000202935   0.00176  -0.00017   0.00910   0.04090
  51   38326.3    260.9   0.000000000   0.00000   0.00000   0.00000  -0.00000
  52   38613.9    259.0   0.000000000   0.00000   0.00000   0.00000  -0.00000
  53   38851.5    257.4   0.000000000   0.00000   0.00000   0.00000  -0.00000
  54   38884.1    257.2   0.000181870   0.00154   0.00658   0.01910   0.03364
  55   38913.8    257.0   0.000000000   0.00000  -0.00000  -0.00000  -0.00000
  56   39037.5    256.2   0.005738712   0.04840  -0.18320  -0.05138  -0.11043
  57   39123.0    255.6   0.000000000   0.00000   0.00000  -0.00000   0.00000
  58   39187.5    255.2   0.000000000   0.00000   0.00000   0.00000   0.00000
  59   39192.9    255.1   0.001196700   0.01005  -0.00987  -0.00526  -0.09963
  60   39201.5    255.1   0.000000000   0.00000   0.00000   0.00000   0.00000

FINAL SINGLE POINT ENERGY     -2725.407477057854

DIPOLE MOMENT
-------------
                                X             Y             Z
Electronic contribution:     -3.74691      -4.09123       5.38202
Nuclear contribution   :      3.32190       3.70810      -4.77477
                        -----------------------------------------
Total Dipole Moment    :     -0.42500      -0.38313       0.60725
                        -----------------------------------------
Magnitude (a.u.)       :      0.83437
Magnitude (Debye)      :      2.12079

Rotational constants in cm-1:     0.005198     0.004778     0.004594
Rotational constants in MHz :   155.832924   143.255481   137.718032

                             ****ORCA TERMINATED NORMALLY****
TOTAL RUN TIME: 0 days 3 hours 11 minutes 34 seconds 288 msec
