 Gaussian 16, Revision B.01,
 Gaussian 16:  ES64L-G16RevB.01 20-Dec-2017

 --------------------
 # opt freq hf/sto-3g
 --------------------

 --------
 polimero
 --------
 Symbolic Z-matrix:
 Charge =  0 Multiplicity = 1

 SCF Done:  E(RHF) =  -1552.86012271     A.U. after   16 cycles
 SCF Done:  E(RHF) =  -1553.32591611     A.U. after   15 cycles
 SCF Done:  E(RHF) =  -1553.87770334     A.U. after   15 cycles
 SCF Done:  E(RHF) =  -1554.18460878     A.U. after   17 cycles
 SCF Done:  E(RHF) =  -1554.33087595     A.U. after   15 cycles
 SCF Done:  E(RHF) =  -1554.47524177     A.U. after   15 cycles
 SCF Done:  E(RHF) =  -1554.51528579     A.U. after   15 cycles
 SCF Done:  E(RHF) =  -1554.54280053     A.U. after   14 cycles
 SCF Done:  E(RHF) =  -1554.54960948     A.U. after   13 cycles
 SCF Done:  E(RHF) =  -1554.55391350     A.U. after   13 cycles
 SCF Done:  E(RHF) =  -1554.55457647     A.U. after   11 cycles
 SCF Done:  E(RHF) =  -1554.55484616     A.U. after   11 cycles
 SCF Done:  E(RHF) =  -1554.55494877     A.U. after   11 cycles
 SCF Done:  E(RHF) =  -1554.55501171     A.U. after   10 cycles
 SCF Done:  E(RHF) =  -1554.55504176     A.U. after   10 cycles
 SCF Done:  E(RHF) =  -1554.55505183     A.U. after   10 cycles
 SCF Done:  E(RHF) =  -1554.55505264     A.U. after    8 cycles
 Optimization completed.
    -- Stationary point found.
 Normal termination of Gaussian 16 at Thu Nov  7 16:37:22 2024.

 ---------------------------------------------------------------
 #N Geom=AllCheck Guess=TCheck SCRF=Check GenChk RHF/STO-3G Freq
 ---------------------------------------------------------------

 Structure from the checkpoint file:  "/scratch/bell/jaguiarc/gaussian/Gau-110651.chk"
 --------
 polimero
 --------
 Charge =  0 Multiplicity = 1

                         Standard orientation:
 ---------------------------------------------------------------------
 Center     Atomic      Atomic             Coordinates (Angstroms)
 Number     Number       Type             X           Y           Z
 ---------------------------------------------------------------------
      1          1           0       -1.000737    1.580827    2.642320
      2          6           0       -0.145710    0.942841    2.457530
      3         17           0       -0.145710   -0.547997    3.388005
      4          1           0        1.667689    0.575335    1.401828
      5          6           0        0.737039    1.136661    1.343326
      6          1           0        0.937119    2.191882    1.147456
      7          1           0       -1.050433    1.061086   -0.000000
      8          6           0       -0.041071    0.634961   -0.000000
      9         17           0       -0.238418   -1.169945    0.000000
     10          1           0        1.667689    0.575335   -1.401828
     11          6           0        0.737039    1.136661   -1.343326
     12          1           0        0.937119    2.191882   -1.147456
     13          1           0       -1.000737    1.580827   -2.642320
     14          6           0       -0.145710    0.942841   -2.457530
     15         17           0       -0.145710   -0.547997   -3.388005
 ---------------------------------------------------------------------

 SCF Done:  E(RHF) =  -1554.55505264     A.U. after    1 cycles

 The electronic state is 1-A'.
 Alpha  occ. eigenvalues -- -103.71657-103.71657-103.69463 -11.15137 -11.11277
 Alpha  occ. eigenvalues --  -11.11273 -11.08529 -11.08528 -10.39692 -10.39692
 Alpha  occ. eigenvalues --  -10.37848  -7.84094  -7.84094  -7.83579  -7.83579
 Alpha  occ. eigenvalues --   -7.83546  -7.83546  -7.82251  -7.81705  -7.81695
 Alpha  occ. eigenvalues --   -1.12979  -1.08700  -1.05498  -0.98796  -0.97204
 Alpha  occ. eigenvalues --   -0.82423  -0.77834  -0.76131  -0.64475  -0.61290
 Alpha  occ. eigenvalues --   -0.60469  -0.57388  -0.53592  -0.52744  -0.49595
 Alpha  occ. eigenvalues --   -0.47367  -0.46873  -0.43255  -0.41884  -0.40551
 Alpha  occ. eigenvalues --   -0.40004  -0.38938  -0.37950  -0.13236
 Alpha virt. eigenvalues --    0.04374   0.33127   0.37307   0.37680   0.53415
 Alpha virt. eigenvalues --    0.53467   0.58659   0.60979   0.63171   0.67505
 Alpha virt. eigenvalues --    0.70592   0.77542   0.77897   0.79932   0.81221

 Mulliken charges:
               1
     1  H    0.088609
     2  C   -0.026870
     3  Cl  -0.120297
     4  H    0.098777
     5  C   -0.101786
     6  H    0.084625
     7  H    0.089865
     8  C    0.029186
     9  Cl  -0.165166
    10  H    0.098777
    11  C   -0.101786
    12  H    0.084625
    13  H    0.088609
    14  C   -0.026870
    15  Cl  -0.120297
 Sum of Mulliken charges =  -0.00000

 Dipole moment (field-independent basis, Debye):
    X=              0.2630    Y=              4.9206    Z=              0.0000  Tot=              4.9276
 Quadrupole moment (field-independent basis, Debye-Ang):
   XX=            -62.2239   YY=            -63.2612   ZZ=            -77.9249
   XY=             -1.4371   XZ=              0.0000   YZ=             -0.0000

  Exact polarizability:  24.454   0.327  48.034   0.000  -0.000 314.862
 Approx polarizability:  20.601  -0.232  45.530   0.000   0.000 436.661

                      1                      2                      3
                     A'                     A"                     A'
 Frequencies --     45.6258                72.9591                76.6284
 Red. masses --     18.3719                 3.4622                20.7009
 Frc consts  --      0.0225                 0.0109                 0.0716
 IR Inten    --      0.3868                 0.3316                 0.5612
 Raman Activ --      1.8630                25.3469                 8.9247

                      4                      5                      6
                     A"                     A'                     A"
 Frequencies --    136.3834               207.3399               243.5307
 Red. masses --     19.7627                 9.4919                 5.6576
 Frc consts  --      0.2166                 0.2404                 0.1977
 IR Inten    --      0.1356                 0.8002                79.0273
 Raman Activ --      4.5037                 8.0554                20.8498

                      7                      8                      9
                     A'                     A"                     A'
 Frequencies --    268.6004               366.4510               397.3191
 Red. masses --      3.3310                 3.8157                 3.2537
 Frc consts  --      0.1416                 0.3019                 0.3026
 IR Inten    --      1.2051                51.5353                 1.5243
 Raman Activ --    262.2773                 7.0273                31.4314

                     10                     11                     12
                     A"                     A'                     A'
 Frequencies --    446.9406               465.5781               525.4603
 Red. masses --      2.1717                 2.5876                 1.5238
 Frc consts  --      0.2556                 0.3305                 0.2479
 IR Inten    --      2.3914                 2.8655                29.2525
 Raman Activ --      4.3305                31.4456               647.0640

                     13                     14                     15
                     A"                     A'                     A"
 Frequencies --    551.2550               777.3194               842.0697
 Red. masses --      1.4119                 3.4902                 4.9326
 Frc consts  --      0.2528                 1.2425                 2.0607
 IR Inten    --    524.2493                 4.8766                57.4908
 Raman Activ --     62.9367               388.3540                29.5216

                     16                     17                     18
                     A"                     A'                     A'
 Frequencies --    871.6461               885.0692               962.0646
 Red. masses --      3.9906                 4.1821                 4.8651
 Frc consts  --      1.7864                 1.9302                 2.6531
 IR Inten    --    137.9799                33.3879                 2.6507
 Raman Activ --     17.8245               338.2034               556.3103

                     19                     20                     21
                     A"                     A'                     A"
 Frequencies --   1112.7907              1168.7530              1331.3020
 Red. masses --      1.6848                 1.6903                 1.2005
 Frc consts  --      1.2292                 1.3604                 1.2536
 IR Inten    --     96.1721                49.0739                35.9599
 Raman Activ --      0.6736                24.1401                22.0879

                     22                     23                     24
                     A'                     A'                     A"
 Frequencies --   1346.4778              1388.2784              1397.9062
 Red. masses --      1.2216                 1.7046                 1.7047
 Frc consts  --      1.3049                 1.9356                 1.9627
 IR Inten    --      0.2273                 1.6557                48.7756
 Raman Activ --     37.8641               411.7061                18.6656

                     25                     26                     27
                     A"                     A'                     A"
 Frequencies --   1464.6997              1492.3143              1502.6978
 Red. masses --      1.1431                 1.1615                 1.0786
 Frc consts  --      1.4449                 1.5240                 1.4350
 IR Inten    --     28.5672                 8.5950                17.0783
 Raman Activ --     21.3852               183.3163                10.3527

                     28                     29                     30
                     A'                     A'                     A"
 Frequencies --   1528.1654              1577.9613              1585.4545
 Red. masses --      1.3561                 1.4563                 1.6221
 Frc consts  --      1.8659                 2.1365                 2.4023
 IR Inten    --     44.6195                49.0095               282.7947
 Raman Activ --     47.3667                60.3528                22.7717

                     31                     32                     33
                     A"                     A'                     A'
 Frequencies --   1741.1108              1750.2902              3580.0958
 Red. masses --      1.2382                 1.2600                 1.0646
 Frc consts  --      2.2115                 2.2743                 8.0397
 IR Inten    --    272.5747                 3.8480                 0.8822
 Raman Activ --     11.8337                50.2952               110.6561

                     34                     35                     36
                     A"                     A'                     A"
 Frequencies --   3584.4314              3644.2156              3710.6263
 Red. masses --      1.0647                 1.0929                 1.0940
 Frc consts  --      8.0599                 8.5515                 8.8750
 IR Inten    --     63.4366                 0.4693              1524.9362
 Raman Activ --    117.8886                30.8539               247.0179

                     37                     38                     39
                     A'                     A"                     A'
 Frequencies --   3724.9677              3726.9115              3729.5558
 Red. masses --      1.1119                 1.1122                 1.0933
 Frc consts  --      9.0903                 9.1022                 8.9599
 IR Inten    --      3.7495                12.1931                 7.9432
 Raman Activ --    111.1884                91.3809               323.6160

 - Thermochemistry -
 -------------------
 Temperature   298.150 Kelvin.  Pressure   1.00000 Atm.
 Atom     1 has atomic number  1 and mass   1.00783

 Molecular mass:   171.96133 amu.
 Principal axes and moments of inertia in atomic units:
                           1         2         3
     Eigenvalues --   604.423553678.836654151.48333
           X            0.00000   0.26156   0.96519
           Y            0.00000   0.96519  -0.26156
           Z            1.00000   0.00000   0.00000
 This molecule is an asymmetric top.
 Rotational symmetry number  1.
 Warning -- assumption of classical behavior for rotation
           may cause significant error
 Rotational temperatures (Kelvin)      0.14330     0.02354     0.02086
 Rotational constants (GHZ):           2.98589     0.49057     0.43472
 Zero-point vibrational energy     324374.9 (Joules/Mol)
                                   77.52746 (Kcal/Mol)
 Warning -- explicit consideration of  13 degrees of freedom as
           vibrations may cause significant error
 Vibrational temperatures:     65.65   104.97   110.25   196.23   298.32
          (Kelvin)            350.39   386.46   527.24   571.65   643.05
                              669.86   756.02   793.13  1118.39  1211.55
                             1254.10  1273.42  1384.20  1601.06  1681.57
                             1915.45  1937.28  1997.42  2011.28  2107.38
                             2147.11  2162.05  2198.69  2270.33  2281.12
                             2505.07  2518.28  5150.96  5157.20  5243.21
                             5338.76  5359.40  5362.19  5366.00

 Zero-point correction=                           0.123548 (Hartree/Particle)
 Thermal correction to Energy=                    0.132953
 Thermal correction to Enthalpy=                  0.133897
 Thermal correction to Gibbs Free Energy=         0.086800
 Sum of electronic and zero-point Energies=          -1554.431505
 Sum of electronic and thermal Energies=             -1554.422100
 Sum of electronic and thermal Enthalpies=           -1554.421156
 Sum of electronic and thermal Free Energies=        -1554.468253

                     E (Thermal)             CV                S
                      KCal/Mol        Cal/Mol-Kelvin    Cal/Mol-Kelvin
 Total                   83.429             31.369             99.124
 Electronic               0.000              0.000              0.000
 Translational            0.889              2.981             41.334
 Rotational               0.889              2.981             30.602
 Vibrational             81.652             25.408             27.188
 Vibration     1          0.595              1.979              4.999
 Vibration     2          0.599              1.967              4.072
 Vibration     3          0.599              1.965              3.975
 Vibration     4          0.614              1.917              2.854
 Vibration     5          0.641              1.829              2.067
 Vibration     6          0.659              1.773              1.777
 Vibration     7          0.673              1.731              1.605
 Vibration     8          0.739              1.541              1.095
 Vibration     9          0.764              1.476              0.973
 Vibration    10          0.806              1.368              0.805
 Vibration    11          0.823              1.326              0.750
 Vibration    12          0.880              1.194              0.597
 Vibration    13          0.907              1.137              0.542

 Optimization completed.
    -- Stationary point found.
 Normal termination of Gaussian 16 at Thu Nov  7 16:37:29 2024.
